          46
Energy of minimum      1=       -0.2936530784 first found at step      194
B        -5.1170646189      -14.0425695975       11.1991939902
B        -5.3620624308      -14.0987301388        7.8129113975
B        -5.2347957197      -17.3769378822        6.9597600112
B        -5.7980867132      -17.5518277797        3.6079288050
B        -5.3320653433      -20.8253893615        2.9414264491
B        -6.1640965183      -21.1359196210       -0.3502917609
B        -5.5177768884      -24.3702863327       -1.0193083267
B        -6.5552998648      -24.9413421142       -4.2165996889
B        -5.6896849699      -28.1591374865       -4.7226882700
N        -7.1828581805      -29.2543228223       -7.5583522387
N        -7.7012357080      -32.5394301891       -6.8259987199
N        -5.0959613922      -33.5369396606       -4.8417854997
L        -5.7778161687      -32.6203088449       -1.6084711399
B        -4.9880587058      -29.2964169271       -1.2058695344
L        -5.7735734508      -28.6066150049        2.0785204538
B        -5.1403222733      -25.2605875767        2.6576931403
L        -5.8769020305      -24.8302668266        5.9924840258
B        -5.3431145778      -21.5076885325        6.7079083674
L        -5.7746900987      -21.2617195046       10.0855496843
B        -5.1613396849      -17.9607592813       10.6812819416
N        -5.2936899798      -17.7113404119       14.0568399584
N        -2.0044547591      -18.1161385008       14.7060645727
N        -0.6106543236      -15.6778279075       12.7763022217
B        -2.1269137769      -15.7192666685        9.6885464328
B        -1.5529151738      -18.8116418197        8.3504538293
B        -2.5896493111      -19.0266798091        5.0702927097
B        -1.8005923792      -22.1900155352        4.1333081658
B        -2.7931084668      -22.5385720964        0.9062743618
B        -2.0786579546      -25.7716604386        0.2772239763
B        -2.9142510116      -26.1004017070       -2.9698974638
B        -2.1259549579      -29.2472442777       -3.8870486075
B        -2.7739653107      -28.8404759895       -7.1716018152
N        -2.1921200389      -31.7092009879       -8.8496081087
N        -2.5839446061      -30.6533852381      -12.0566715400
N        -5.0876522449      -28.3203179350      -11.9837581288
L        -3.7960302646      -25.3907680599      -10.7535098936
B        -4.2169090489      -25.2971251122       -7.3349069592
L        -2.8551255752      -22.2734064419       -6.3892031980
B        -3.3005391047      -21.9707237958       -2.9849643600
L        -2.0363710224      -18.8792699969       -2.1931075798
B        -2.7520624151      -18.4930598845        1.1452639986
L        -1.5495089070      -15.3808875570        1.9047920441
B        -2.5019590393      -15.0323095399        5.1630842517
L        -1.3746903520      -11.9643937436        6.1442922518
B        -2.5305341879      -11.8688190441        9.3532773940
L        -1.5304192923       -8.8568804461       10.6127308753
          46
Energy of minimum      2=       -0.2814928751 first found at step      185
B       -12.3347041526      -15.9252251700       11.3825376697
B       -12.5334155034      -15.3357378225        8.0429626190
B       -11.4285466984      -18.1761098559        6.5526830888
B       -11.8962692910      -17.7790488202        3.2013656234
B       -10.4907191495      -20.5650459421        1.9083703745
B       -11.1369781889      -20.3345722466       -1.4297792845
B        -9.6455799823      -23.0703523324       -2.7147465011
B       -10.2419286450      -22.8696728317       -6.0570812376
B        -8.6731243759      -25.5228991118       -7.4307003266
N       -10.6768911726      -28.2150157816       -6.8789949096
N        -9.3194082686      -30.6413758505       -8.8425400080
N        -6.0871903135      -30.7810547502       -7.8099720185
L        -6.4371197653      -30.5975475151       -4.4436304555
B        -7.3446274227      -27.3530704042       -3.7740660914
L        -7.9409033741      -27.5417419169       -0.3870182322
B        -8.8453955968      -24.4268207832        0.7628531067
L        -9.3793244674      -24.9640642803        4.1191468044
B       -10.2347792113      -21.9281198572        5.4807226830
L       -10.5097265475      -22.5454086212        8.8274094066
B       -11.2533210918      -19.4745387380       10.1069090802
N       -11.3074852044      -20.0047993729       13.4547863174
N        -8.0248179635      -19.5503934202       14.1131329394
N        -7.4922902047      -16.4393890861       12.8348533913
B        -8.9819426815      -16.2933581108        9.7418157035
B        -7.4092522872      -18.6323271661        7.8072452458
B        -8.4084167240      -18.4810241655        4.5161925433
B        -6.6349960775      -20.9173395558        2.9584484412
B        -7.5502915214      -20.8716430181       -0.3123197008
B        -5.8470022103      -23.4704790813       -1.6150009617
B        -6.6263736180      -23.3357239764       -4.8932606687
B        -4.9540473931      -25.8004214319       -6.4908361718
B        -5.7305585045      -24.9246004208       -9.6689405589
N        -4.3291801315      -27.0628573988      -11.8654840105
N        -5.0255468909      -25.4590039761      -14.7788072764
N        -8.0657565225      -23.9550307299      -14.3093592136
L        -7.6127780958      -21.1288975354      -12.4143523698
B        -8.0482033077      -21.9345974469       -9.0947682246
L        -7.6260450080      -18.9778690786       -7.3624839219
B        -8.1846006736      -19.6485142032       -4.0153860246
L        -7.9091162819      -16.5908742745       -2.4803859741
B        -8.7410386279      -17.1886281797        0.7979884155
L        -8.5242094857      -14.1069836508        2.2692206797
B        -9.5486457075      -14.7713818149        5.4539644996
L        -9.3867380005      -11.7997711719        7.1234941897
B       -10.5209933042      -12.7488135841       10.1976269867
L       -10.4653095500       -9.9281547587       12.1209420566
          46
Energy of minimum      3=       -0.2797001592 first found at step      135
B         2.2177171763      -11.1946245027       14.0211687801
B        -1.1160269675      -11.5081798894       13.4615886779
B        -1.6517019777      -14.8390300756       13.1408307422
B        -5.0194974996      -15.2706230358       12.8328786341
B        -5.3107314900      -18.5783822194       12.2340957841
B        -8.6818188069      -19.1522200932       12.1058880144
B        -8.9013517441      -22.4232410004       11.3172102914
B       -12.1879070476      -23.3136075608       11.3457366372
B       -12.0295455897      -26.5436744811       10.3909146394
N       -15.0447743014      -27.9927839450       10.8835800458
N       -14.1406929172      -31.2674966620       10.8529281964
N       -12.3343250481      -31.7161167386       13.7121573825
L        -9.1099037848      -30.5487577352       13.4699767747
B        -9.0161315000      -27.2218410496       12.6177306062
L        -5.7258706889      -26.3139372693       13.0804706941
B        -5.3382308082      -22.9414428640       12.4254086945
L        -2.1119037159      -22.3290418389       13.4502855617
B        -1.5904955581      -18.9432331387       13.1587773982
L         1.6529393743      -18.4952539118       14.1210073639
B         2.0706972423      -15.1302472286       13.7744174039
N         5.3294653539      -14.6523310991       14.5785938056
N         6.6631346998      -14.8003762385       11.4835620672
N         4.8675540663      -12.4053760191        9.8648288842
B         1.5517618817      -12.7911336065       10.6900024433
B         0.7036941031      -15.9957767626        9.8637776887
B        -2.6913593805      -16.5412086263       10.0879664126
B        -3.0861351535      -19.7843178602        9.1795222832
B        -6.4096067831      -20.4293952389        9.2644342968
B        -6.4892274670      -23.7148483576        8.5474869015
B        -9.7933133926      -24.2669400993        8.2412255675
B       -10.1203733399      -27.4895910647        7.2765277149
B       -13.4546593278      -27.3669227972        6.8254796083
N       -14.6073843119      -30.3704823652        5.8085350831
N       -17.8711702655      -29.6262310131        5.2176735624
N       -18.7828868254      -27.3832009189        7.6376908593
L       -17.5265674427      -24.3078508864        6.7850983445
B       -14.4018235911      -23.9168789458        8.1822435602
L       -13.3997656541      -20.7758298510        7.1740855222
B       -10.3094790691      -20.1894979974        8.5830767544
L        -9.4871372170      -17.0049382178        7.6130865569
B        -6.5291057000      -16.3527990332        9.2308552914
L        -5.7780075898      -13.1503731855        8.2883746839
B        -2.9297086537      -12.5369303758       10.0611631187
L        -1.9892809463       -9.3584613274        9.2412901848
B         0.8061862029       -9.0078955912       11.1688683809
L         1.9818448354       -5.8645552901       10.5406265554
          46
Energy of minimum      4=       -0.2785164875 first found at step      181
B         5.8304527628      -16.1988315010      -10.6152110962
B         4.6781300994      -18.8363279958       -8.8484544446
B         3.4332191839      -17.4619504868       -6.0211344127
B         2.5271838433      -20.0851486864       -4.0378480744
B         1.0769858915      -18.5978492256       -1.3795868664
B         0.3380722649      -21.1486631850        0.7703026808
B        -1.2391976041      -19.6243023458        3.3354599708
B        -1.8667582010      -21.9570135147        5.7390816010
B        -3.5509120697      -20.3129424812        8.1760105722
N        -3.6917651962      -22.4185487408       10.8243019656
N        -2.0074859064      -20.6352162704       13.1780282787
N        -3.1137314424      -17.4205408143       12.8260736221
L        -1.1007304861      -15.8487769846       10.5434543456
B        -1.7303805840      -17.0573649318        7.3820442368
L         0.4965958398      -15.2933727521        5.4329690065
B         0.2838213089      -16.3620635003        2.1575421043
L         2.5774140651      -14.3534607791        0.5664878060
B         2.6040491619      -15.3273810150       -2.7224440880
L         4.6476423191      -13.0809993177       -4.2723863546
B         4.4338896872      -14.0383459951       -7.5368578834
N         6.2710551278      -11.6600712025       -9.1384475323
N         5.3941381993      -12.1225928683      -12.3746878476
N         2.1565495257      -13.1369664119      -12.0993877331
B         2.1183549027      -15.8844761928      -10.0377917010
B         0.5516092938      -14.8527332849       -7.1653841325
B        -0.0776410422      -17.4608949931       -4.9946791584
B        -1.6712129089      -16.0329632984       -2.3457952126
B        -2.3763474156      -18.5001564018       -0.1082219037
B        -3.6152090480      -16.7247573438        2.4939120114
B        -4.5452812165      -18.9884075940        4.8430538506
B        -5.6166302703      -17.0612480090        7.4227700211
B        -6.7917794043      -19.1697487103        9.8090248295
N        -9.6089901943      -20.5548970441        8.5172710762
N       -10.5115065116      -22.8825215109       10.8216429628
N        -7.8897444091      -25.0497183310       10.9009331230
L        -7.3944319374      -25.8436891329        7.6327157806
B        -5.5262490115      -23.3298700828        6.2354449668
L        -5.3985163684      -24.2706325490        2.9422749311
B        -3.4844979235      -21.9454501563        1.3189462712
L        -3.4619718465      -23.0209793517       -1.9252335364
B        -1.3664994945      -20.8197295576       -3.4916175504
L        -1.3312387514      -21.9322600583       -6.7227516527
B         0.9092752667      -19.8040487575       -8.1506148712
L         1.1063804004      -20.7315187710      -11.4299737059
B         3.4464732424      -18.5199909590      -12.5591209220
L         3.8606308836      -19.2148295348      -15.8761801269
          46
Energy of minimum      5=       -0.2766031427 first found at step      273
B        -8.6047766359      -20.1240905035       16.1478265753
B       -10.2737490886      -19.2906243503       13.3340835426
B        -8.9023123869      -21.2426195223       10.9439685494
B       -10.7453009499      -20.6329842553        8.1518449107
B        -9.1739288386      -22.4345072117        5.7934973136
B       -11.1293663761      -21.9663705140        3.0492341001
B        -9.5357319879      -23.7424129495        0.7074782167
B       -11.5048405447      -23.6856366238       -2.0585934008
B        -9.7842467162      -25.6338260135       -4.2163637694
N       -11.7756293375      -26.2867903598       -6.8801993596
N       -10.5672391542      -29.3016674144       -7.9061588794
N        -7.2241005235      -29.3478071456       -7.1627703760
L        -6.8655027224      -30.1271239423       -3.8425027944
B        -7.2484541087      -27.2519149244       -1.9925799121
L        -6.9094611651      -28.2610963995        1.2805110204
B        -7.3649729765      -25.5065517052        3.3122019433
L        -6.8525803271      -26.7581978458        6.4780577593
B        -7.2429160862      -24.1217337120        8.6467005241
L        -6.3758756600      -25.3570412343       11.7056181346
B        -6.5618908864      -22.5920927654       13.6966838543
N        -5.4663008254      -23.7558860252       16.7031335873
N        -4.8422874243      -20.9000726594       18.4099069741
N        -3.7943565341      -18.8002951272       15.9436590803
B        -6.2593809806      -18.7215362574       13.5527794334
B        -4.9408885369      -20.3345517241       10.8262214026
B        -6.9736535286      -20.0940670513        8.0490889030
B        -5.3142987570      -21.7303732450        5.5586922149
B        -7.2696471250      -21.5427377534        2.7793089069
B        -5.6372062239      -23.4200433671        0.4789107064
B        -7.5555752969      -23.1038073187       -2.2971184727
B        -6.0944124909      -24.7925409184       -4.8233941139
B        -8.2553835935      -23.7552276783       -7.2014901756
N        -7.4042715131      -24.9512889932      -10.2304818295
N        -9.2938811624      -22.9065124445      -12.1777503274
N        -8.0272501791      -19.7798754761      -11.6366460319
L        -9.2706269382      -18.3114529459       -8.7848808826
B        -8.6143776162      -20.2040820113       -5.9944963414
L        -9.5436025144      -18.2441493233       -3.3325735711
B        -8.9712186552      -19.8928271929       -0.3479048879
L        -9.6012233121      -17.3650393918        1.9039375673
B        -9.0111044902      -18.6240919476        5.0419076266
L        -9.5212498858      -15.9328216967        7.0990145294
B        -8.9401360047      -17.2626392380       10.1869855530
L        -9.3351547954      -14.7036509487       12.4129593145
B        -8.7486540706      -16.3371452490       15.3542233099
L        -9.0764456240      -13.9848304424       17.8070628740
          46
Energy of minimum      6=       -0.2703917873 first found at step      238
B        -9.6383680849      -13.6164195940        4.5080804902
B        -6.8442756252      -14.4854706243        2.8221364690
B        -7.2111356148      -17.7969524849        2.2600710557
B        -4.5989159596      -18.6679686769        0.2586986900
B        -4.9221001085      -22.0084634857        0.0131955466
B        -2.5276594349      -22.9191871567       -2.2280010899
B        -2.7847444622      -26.2690421922       -2.3033201871
B        -0.7067075803      -27.3440271277       -4.7617536862
B        -0.9471761726      -30.7021643780       -4.6094131592
N         0.3848995992      -31.8021781547       -7.5305858066
N        -1.8934806945      -34.0943751601       -8.6198802072
N        -4.9540347190      -33.1080577353       -7.4382843794
L        -4.8830288588      -33.8776479834       -4.1165834342
B        -4.0688915696      -31.0054115234       -2.4136466793
L        -6.9292743245      -29.0853456741       -2.3141463785
B        -6.1458516199      -26.1987727346       -0.5799926867
L        -9.1368799050      -24.5247804827       -0.2521246277
B        -8.4240197102      -21.6565637085        1.5089133567
L       -11.4449766927      -20.2353071594        2.2079129453
B       -10.5598164047      -17.5688398132        4.1468029546
N       -13.5629138193      -16.2828310588        5.1091570371
N       -12.6967033312      -14.2554695273        7.6815603794
N        -9.9784975474      -15.8480241218        8.9750628274
B        -7.7283312142      -16.2334550462        6.4100640776
B        -7.5419767238      -19.6142658684        5.8787413093
B        -5.0980548754      -20.4571228042        3.5958821473
B        -5.1573712312      -23.8531514352        3.4587608929
B        -2.8096586441      -24.7771368771        1.1805434728
B        -3.1307242179      -28.1364354378        1.1006563360
B        -0.7208474824      -29.0617679834       -1.0825299379
B        -0.6769315363      -32.4356499746       -1.2214082590
B         2.0094060044      -32.7140463845       -3.2467264195
N         2.6577509475      -35.9619323149       -3.8822217804
N         5.5924589961      -35.6834238831       -5.5726875347
N         5.3377022321      -32.8160500043       -7.4250874468
L         5.8126393511      -30.1307056647       -5.3430378153
B         2.7660585449      -29.0628390691       -4.1364495121
L         3.5314613080      -26.3664414342       -2.1256594532
B         0.5523717477      -25.1013504922       -0.9407470322
L         1.4066141067      -22.3339285676        0.8990402979
B        -1.6076292454      -20.9396496636        1.7824235966
L        -0.7468360821      -18.1237036133        3.5247779440
B        -3.7935677743      -16.7122225666        4.1318734214
L        -3.1671277974      -13.8447571544        5.8742849189
B        -6.3339861416      -12.6244730320        6.2360318970
L        -6.0131886712       -9.7055704915        7.9780824847
          46
Energy of minimum      7=       -0.2692750706 first found at step     1623
B        -2.1989403705      -12.4492727259       10.0648607803
B        -1.8759797190      -15.6106420586       11.2119440313
B        -3.8931862802      -17.4279615066        9.2012305421
B        -3.3570874263      -20.6701640304       10.0942231748
B        -5.6023558111      -22.3384501917        8.2257041457
B        -4.9342180519      -25.6219364373        8.8553685326
B        -7.2943956408      -27.2312050603        7.0851843842
B        -6.6370449000      -30.5643589062        7.3456612010
B        -9.2169596603      -32.0107259521        5.7068701562
N        -8.5287338228      -35.3044347486        5.2855187568
N       -10.1353826747      -35.9746752553        2.3597699547
N       -12.8309074303      -33.8705886789        2.2016545423
L       -11.7368592463      -30.7996135928        1.1386942483
B       -10.5971854273      -29.0344678167        3.8632859305
L        -9.5307004999      -26.0191096926        2.5694914260
B        -8.2941667621      -24.1104790155        5.1710902823
L        -7.4052088596      -21.1219896907        3.7120268549
B        -6.2273303605      -19.1172542710        6.2485760220
L        -5.7022847610      -16.0741839421        4.8016705444
B        -4.8342794912      -14.1202554348        7.4615592421
N        -4.5389513703      -11.0332118094        6.0531299873
N        -4.6906531911       -8.9774435319        8.7392728229
N        -6.8219330581      -10.6507038386       10.7990653818
B        -5.5019228761      -13.7860889844       11.2561570475
B        -7.6761821893      -15.9291925485        9.7001236544
B        -6.8812366950      -19.2375326656       10.2598890839
B        -9.3056046599      -21.0174630056        8.6807618385
B        -8.5613552556      -24.2997677729        9.1408598496
B       -10.9860037384      -25.8554597351        7.3960206144
B       -10.3168130994      -29.1064535384        7.9675054656
B       -12.8097204762      -30.8755309182        6.5678251360
B       -11.8855949399      -33.8612758882        7.8262058437
N       -14.2752753140      -36.1488496825        7.1487435955
N       -13.6480275270      -38.4419652745        9.5843055514
N       -11.9511824483      -36.7399566036       12.0312510131
L        -8.8019792923      -36.2842646566       10.7869366037
B        -8.5180754543      -33.0799309641        9.5566015493
L        -8.2323976964      -30.9252225023       12.2293719831
B        -7.7021138258      -27.7981594129       10.8526014431
L        -7.1007546586      -25.7160546941       13.5145599545
B        -6.2919788955      -22.6984736441       12.0763789523
L        -5.5395334414      -20.6801564866       14.7366787787
B        -4.5781675159      -17.7932124616       13.1896727224
L        -3.7465586052      -15.6179611442       15.6867427931
B        -2.7813683190      -12.8962439437       13.8642852732
L        -1.8789503953      -10.5210856525       16.1449826249
          46
Energy of minimum      8=       -0.2654055955 first found at step      246
B         5.2769694749      -10.8612472704      -13.2642474158
B         5.9246891001      -13.2082871852      -10.9192648790
B         3.6470072298      -12.6070743084       -8.4936010105
B         4.4474673399      -14.7383599101       -5.9566343575
B         1.9740327584      -14.2216019491       -3.7258637175
B         2.8493120477      -16.1737933380       -1.0761460148
B         0.3292155429      -15.7108356079        1.1110535972
B         1.1492260401      -17.6718933207        3.7584750212
B        -1.3859976378      -17.3867919713        5.9621316173
N        -0.8800299597      -14.4620906496        7.6215664155
N        -3.1069060009      -14.6063598213       10.1906143611
N        -6.0823665944      -15.0145912184        8.6098679380
L        -5.7497724453      -12.8621923150        6.0132029953
B        -3.5690426430      -14.3564708289        3.8190418852
L        -3.1848469886      -11.8362150572        1.4988933136
B        -1.1377772837      -12.9386899090       -1.0396560398
L        -0.9608589552      -10.2234051199       -3.1423617609
B         0.8769093822      -11.2346930364       -5.8610171036
L         0.7733553461       -8.5768978928       -7.9908557722
B         2.2864555405       -9.8077486495      -10.7861746464
N         2.0245358855       -7.1965958934      -12.9573877299
N         2.4043081917       -8.6960397723      -15.9664252870
N         0.8254041798      -11.6671960334      -15.4660376312
B         2.3303438646      -13.1417094936      -12.7569185937
B        -0.0272429309      -13.1418641413      -10.2700459866
B         0.9981724618      -14.9257509991       -7.5014113528
B        -1.6023375157      -14.8132680706       -5.3161370163
B        -0.6406787831      -16.5513624869       -2.5547826854
B        -3.2592461867      -16.1860836180       -0.4670692704
B        -2.3514234774      -18.0938794740        2.1571112163
B        -4.8350036486      -18.0524526715        4.4436683986
B        -3.4995056616      -20.4635978801        6.3980746330
N        -5.2878068816      -20.9722930587        9.1941028632
N        -2.6989528543      -20.8269960032       11.3795072746
N        -0.3786407704      -23.2058001161       10.5138964043
L        -0.1723958944      -23.8854956671        7.1392910241
B         0.0589918690      -21.0371629243        5.2111398786
L         0.5478923105      -22.1695417955        1.9723456694
B         0.7662381664      -19.4152695073       -0.1211219095
L         1.6428802282      -20.6935889418       -3.1832530665
B         2.0957665393      -17.9248652013       -5.1707697146
L         3.1784383843      -19.2268647257       -8.1447488624
B         3.7673527493      -16.4098551276       -9.9760891467
L         4.9196086462      -17.4838743740      -13.0060126019
B         5.4670461028      -14.4993830865      -14.5726384756
L         6.6476178860      -15.2812662452      -17.6794316322
          46
Energy of minimum      9=       -0.2638405188 first found at step      190
B         5.2767683634      -16.5198690091      -10.0897452742
B         4.0027965085      -19.0930735820       -8.2787048157
B         2.9867375819      -17.6942904488       -5.3669179937
B         1.9614040231      -20.2399992905       -3.3581294410
B         0.7631264737      -18.5948562682       -0.6749257023
B        -0.0535533269      -21.0662709477        1.5332247519
B        -1.3228471298      -19.3555077372        4.1357975659
B        -1.9874714715      -21.6168817154        6.6189800874
B        -3.2804717045      -19.6814108539        9.0700863371
N        -3.3341227425      -21.4768726291       11.9509991945
N        -3.3888620931      -18.9939290634       14.2868138023
N        -5.1832573704      -16.3873288966       12.9687418188
L        -3.1236298936      -14.5788098346       10.9059931258
B        -2.9960312024      -16.1505286577        7.8511992982
L        -0.8331997667      -14.2683786723        5.9425181677
B        -0.4931055320      -15.8350944995        2.8849057699
L         1.6119773825      -13.7851303936        1.0878431985
B         2.1091257570      -15.2571262869       -1.9865102830
L         3.9276672081      -12.9749202783       -3.7640321595
B         4.3199869800      -14.4729682595       -6.8054284465
N         5.8774416963      -12.1129019517       -8.6760776166
N         3.1555904231      -10.6538172637      -10.0505207679
N         1.5931942450      -13.3159416393      -11.4917715433
B         1.6782120895      -15.9197268918       -9.2519996173
B        -0.0704794278      -14.8847581121       -6.5056824152
B        -0.4491258867      -17.3951695173       -4.1811240348
B        -2.2697202978      -15.9763274871       -1.6950446439
B        -2.6105249691      -18.3160460103        0.7345795991
B        -4.3277218345      -16.6756465622        3.1265744392
B        -4.6340799746      -18.9493267283        5.5951070897
B        -6.7065488332      -17.6410028363        7.8948387446
B        -6.9074507372      -20.2176239653       10.0673748899
N        -9.6170775276      -19.7269991315       11.9984858766
N       -11.9885701206      -20.4888161652        9.6822087349
N       -11.3101852060      -23.6225985371        8.4294834119
L        -8.1170256058      -24.6488788641        9.1790791464
B        -5.8277434919      -22.7496216149        7.4342529882
L        -6.2096817967      -23.5505752018        4.1143140107
B        -3.9330378432      -21.6103656957        2.4023985736
L        -4.2883232951      -22.5442562655       -0.8835969695
B        -1.9547218730      -20.6685689023       -2.5662027693
L        -2.2563021615      -21.6509146010       -5.8317088455
B         0.1728661136      -19.7914497276       -7.3475664420
L         0.0616666591      -20.6002416043      -10.6621836973
B         2.5824884833      -18.6422328533      -11.8753890448
L         2.7044715273      -19.2563345117      -15.2318113409
          46
Energy of minimum     10=       -0.2628005099 first found at step      306
B       -11.5930845023      -15.8000433147       12.5325048065
B       -11.1951166526      -14.9188736636        9.2953023469
B       -10.6424212325      -17.8503941597        7.7107017047
B       -10.5325948948      -17.0597989203        4.4006003794
B        -9.7450997682      -19.9999351711        2.9736867170
B        -9.8366198621      -19.3492315552       -0.3754261168
B        -8.9987520444      -22.3070683645       -1.7294978395
B        -9.2451660314      -21.9790640021       -5.1259770346
B        -8.3454351591      -25.0323407232       -6.2572507541
N        -9.2003967271      -25.2386058965       -9.5366847672
N        -9.5028220066      -28.6087297756       -9.9473787007
N        -7.2855122057      -30.1015949047       -7.8019733280
L        -8.6785603195      -30.1440250920       -4.6686054894
B        -8.0445054916      -27.1209974445       -3.1571799758
L        -9.5851980446      -27.3125789630       -0.0806603774
B        -9.1411886947      -24.2894636497        1.5287208106
L       -10.6533419230      -24.7166025431        4.5931868157
B       -10.2521279249      -21.7726211158        6.3317712903
L       -11.4622250710      -22.4257460883        9.4537869393
B       -10.7570792339      -19.5589670699       11.1668858818
N       -11.7514078954      -20.3218881556       14.3349844457
N       -10.1949206818      -17.9637692496       16.2032498064
N        -7.2879749860      -17.4951436799       14.4967472532
B        -8.1694549303      -16.7047721353       11.2772082613
B        -7.1358284289      -19.3586403127        9.3730310562
B        -7.5595592206      -18.8002115013        5.9990195904
B        -6.3094317701      -21.5679458923        4.4715779823
B        -6.8017739942      -21.1664548608        1.1362015936
B        -5.6063061815      -24.0366520219       -0.1707911870
B        -6.1274949094      -23.6861038185       -3.4844682334
B        -4.5860584313      -26.2557495024       -5.0095124365
B        -5.1575698361      -25.4774025069       -8.2462785200
N        -2.9628032420      -27.1897420225      -10.1321619932
N        -0.2003162779      -25.3329159507       -9.4280353767
N        -0.9024114036      -22.0345020679      -10.1258585263
L        -4.2758743392      -21.4810895322      -10.4807130082
B        -5.8509871794      -21.8183845170       -7.4307189806
L        -4.7990691271      -19.1936730080       -5.4759795561
B        -6.3553607837      -19.5978040937       -2.4265924082
L        -5.3852478280      -16.8726581786       -0.5774052948
B        -7.0023365173      -17.2546368085        2.4284361327
L        -6.1213350435      -14.4757264010        4.2228769315
B        -7.8565558729      -14.9390695418        7.1251410877
L        -7.1489399676      -12.2438346271        9.0995417227
B        -9.0221244830      -12.9704137242       11.8625908912
L        -8.5011220745      -10.3962258841       14.0441483331
